LAMMPS (29 Aug 2024)
OMP_NUM_THREADS environment is not set. Defaulting to 1 thread. (src/comm.cpp:98)
  using 1 OpenMP thread(s) per MPI task
Created orthogonal box = (-5 -5 -5) to (5 5 5)
  1 by 1 by 1 MPI processor grid
Read molecule template water:
# Water molecule. Explicitly-defined 4 body geometry (TIP4P geometry), for use with `fix rigid`
  1 molecules
  0 fragments
  4 atoms with max type 3
  0 bonds with max type 0
  0 angles with max type 0
  0 dihedrals with max type 0
  0 impropers with max type 0
Created 132 atoms
  using lattice units in orthogonal box = (-5 -5 -5) to (5 5 5)
  create_atoms CPU = 0.003 seconds
  create bodies CPU = 0.000 seconds
  33 rigid bodies with 132 atoms
  0.87347849 = max distance from body owner to body atom
EwaldDisp initialization ...
Generated 3 of 3 mixed pair_coeff terms from geometric mixing rule
  G vector = 0.30944956,   accuracy = 0.033206371
Generated 3 of 3 mixed pair_coeff terms from geometric mixing rule
WARNING: Neighbor exclusions used with KSpace solver may give inconsistent Coulombic energies (src/neighbor.cpp:658)
Neighbor list info ...
  update: every = 1 steps, delay = 0 steps, check = yes
  max neighbors/atom: 2000, page size: 100000
  master list distance cutoff = 10.5
  ghost atom cutoff = 10.5
  binsize = 5.25, bins = 2 2 2
  2 neighbor lists, perpetual/occasional/extra = 2 0 0
  (1) pair lj/cut/coul/long, perpetual
      attributes: half, newton on
      pair build: half/bin/atomonly/newton
      stencil: half/bin/3d
      bin: standard
  (2) pair lj/cut/coul/long, perpetual, copy from (1)
      attributes: half, newton on
      pair build: copy
      stencil: none
      bin: none
Setting up Verlet run ...
  Unit style    : real
  Current step  : 0
  Time step     : 0.25
  vectors: nbox = 3, nkvec = 61
Per MPI rank memory allocation (min/avg/max) = 15.37 | 15.37 | 15.37 Mbytes
   Step          Temp          Press          TotEng        Density         PotEng         KinEng    
         0   0              6967438.5      10282.101      0.987204       10282.101      0            
       100   23648.605      284.44683      1504.0869      0.0014843394  -3077.893       4581.98      
       200   14536.746      114.01038     -261.62249      0.0009479467  -3078.1556      2816.5331    
       300   8890.2663      56.983697     -1356.1283      0.0007778346  -3078.641       1722.5127    
       400   5287.5094      31.420834     -2053.8656      0.00070219407 -3078.3346      1024.469     
       500   3428.7612      18.457417     -2414.1494      0.00066351568 -3078.481       664.33158    
       600   2157.9771      10.972862     -2660.0668      0.00064170585 -3078.1805      418.11379    
       700   1581.3562      7.3786788     -2771.8102      0.00062868472 -3078.2021      306.39197    
       800   1075.2107      5.8637891     -2869.9834      0.00062120765 -3078.3083      208.32492    
       900   754.43281      4.0009826     -2932.1311      0.00061682056 -3078.3044      146.17336    
      1000   549.16583      2.0400782     -2971.9252      0.00061403065 -3078.3275      106.40234    
      1100   480.52771      1.4010727     -2985.2619      0.00061256012 -3078.3655      93.10352     
      1200   391.84857      0.64834219    -3002.4413      0.00061157443 -3078.363       75.921699    
      1300   333.89898      1.4720548     -3013.6817      0.00061136129 -3078.3755      64.693813    
      1400   305.34852      2.8961867     -3019.2447      0.00061078277 -3078.4068      59.162085    
      1500   366.85063      0.54273355    -3007.3308      0.00061055451 -3078.4091      71.078283    
      1600   294.89575      0.51792538    -3021.2484      0.00061030154 -3078.3852      57.136835    
      1700   296.17296      0.53308694    -3020.982       0.00061048906 -3078.3663      57.384297    
      1800   303.46534      0.4489752     -3019.555       0.00061042781 -3078.3522      58.797215    
      1900   301.04754      0.26472583    -3020.0115      0.00061090903 -3078.3403      58.328759    
      2000   309.82281      3.1082089     -3018.3092      0.00061127996 -3078.3382      60.028991    
      2100   348.14969      1.3921737     -3010.8917      0.00061128246 -3078.3467      67.454927    
      2200   336.80919      1.5667193     -3013.1029      0.00061135492 -3078.3606      65.257674    
      2300   322.12636      1.2382444     -3015.9484      0.00061117516 -3078.3613      62.412836    
      2400   348.67805      0.16394413    -3010.7933      0.0006111933  -3078.3506      67.557297    
      2500   318.39391      1.0980974     -3016.645       0.00061137427 -3078.3347      61.689666    
      2600   369.7583       2.021216      -3006.6885      0.00061087103 -3078.3302      71.641651    
      2700   365.99196      0.9939236     -3007.4251      0.00061045658 -3078.337       70.911914    
      2800   336.77336      1.5029894     -3013.0731      0.0006103456  -3078.3239      65.250733    
      2900   301.02762      1.2587713     -3020.0083      0.0006102319  -3078.3332      58.324899    
      3000   273.3131       1.5030829     -3025.3834      0.00061036319 -3078.3385      52.955139    
      3100   295.7885       1.0877317     -3021.0402      0.00061042922 -3078.35        57.309807    
      3200   288.98711      1.5623688     -3022.3596      0.0006104779  -3078.3516      55.99202     
      3300   305.15181      0.16339507    -3019.2431      0.00061044714 -3078.3671      59.123973    
      3400   291.21771     -0.33137417    -3021.964       0.00061066797 -3078.3882      56.424204    
      3500   278.98798      1.7897162     -3024.3349      0.00061093398 -3078.3895      54.054661    
      3600   281.18435      1.4105831     -3023.9096      0.00061118993 -3078.3898      54.480214    
      3700   305.37105      0.76472854    -3019.2445      0.00061138153 -3078.4109      59.166452    
      3800   259.86512      0.25365688    -3028.043       0.00061123479 -3078.3925      50.349557    
      3900   294.57971      1.3228237     -3021.2897      0.0006111388  -3078.3653      57.075601    
      4000   294.21087      1.6724782     -3021.3678      0.00061138852 -3078.372       57.004137    
      4100   290.49772      0.62490772    -3022.0843      0.00061148879 -3078.369       56.284704    
      4200   284.81192      0.6381589     -3023.1846      0.00061170815 -3078.3676      55.183066    
      4300   295.37906      1.3180903     -3021.1368      0.00061166801 -3078.3673      57.230476    
      4400   306.61289      0.23111891    -3018.931       0.00061198378 -3078.338       59.407061    
      4500   312.20082      0.58124306    -3017.8439      0.00061211854 -3078.3336      60.489736    
      4600   351.81219      0.10488437    -3010.2202      0.00061213767 -3078.3848      68.164545    
      4700   314.48074      2.0304112     -3017.4582      0.00061209514 -3078.3897      60.931479    
      4800   316.32275      2.0180007     -3017.0709      0.00061194826 -3078.3593      61.288373    
      4900   280.6823       1.0960312     -3023.9647      0.00061193458 -3078.3476      54.38294     
      5000   292.49424      1.6222853     -3021.6954      0.00061162957 -3078.3669      56.671536    
      5100   300.73409     -0.10599383    -3020.1097      0.0006114392  -3078.3777      58.268027    
      5200   329.71631      1.4270662     -3014.4769      0.00061123273 -3078.3603      63.883411    
      5300   333.32732      1.4128576     -3013.7833      0.00061062657 -3078.3664      64.583052    
      5400   342.23982      0.63551379    -3012.0763      0.00061004105 -3078.3861      66.309873    
      5500   320.99235      0.39183332    -3016.1945      0.00060947993 -3078.3876      62.19312     
      5600   368.89535      1.675218      -3006.9008      0.00060917557 -3078.3753      71.474453    
      5700   353.31469      1.3704832     -3009.9062      0.00060913181 -3078.3619      68.455658    
      5800   317.88919     -0.6841478     -3016.7966      0.00060909491 -3078.3885      61.591875    
      5900   311.89194     -0.51648701    -3017.9847      0.00060918438 -3078.4146      60.429891    
      6000   262.1152       0.38196415    -3027.6207      0.00060923315 -3078.4062      50.785515    
      6100   275.07523      2.0202184     -3025.0838      0.000609363   -3078.3804      53.296556    
      6200   300.65221      1.4244362     -3020.1218      0.00060947775 -3078.374       58.252164    
      6300   310.858        1.1771091     -3018.1222      0.000609493   -3078.3517      60.229563    
      6400   355.87963      1.7263452     -3009.3933      0.000609384   -3078.3459      68.952622    
      6500   351.88573      0.49229063    -3010.1951      0.00060916775 -3078.3739      68.178793    
      6600   314.62993     -0.19095356    -3017.4285      0.00060928921 -3078.3888      60.960383    
      6700   313.64861     -0.04327414    -3017.6283      0.00060913701 -3078.3985      60.77025     
      6800   330.87119      2.4033518     -3014.2822      0.0006091586  -3078.3894      64.107171    
      6900   313.37311      1.476103      -3017.6558      0.0006089125  -3078.3727      60.716871    
      7000   342.10687      1.6847314     -3012.0656      0.00060886454 -3078.3497      66.284113    
      7100   334.60327      0.97341236    -3013.5177      0.00060843458 -3078.348       64.830272    
      7200   273.66536      1.1123381     -3025.3511      0.00060806444 -3078.3745      53.02339     
      7300   272.47972      0.58399354    -3025.6111      0.00060822316 -3078.4048      52.793668    
      7400   281.38398      0.43210754    -3023.9         0.00060820461 -3078.4189      54.518892    
      7500   306.50893      1.9310593     -3019.019       0.0006082132  -3078.4059      59.386918    
      7600   307.49069      1.9256043     -3018.7902      0.00060782827 -3078.3673      59.577136    
      7700   283.84521      1.1529238     -3023.3688      0.0006073409  -3078.3646      54.995763    
      7800   330.93422      0.20367193    -3014.264       0.00060724956 -3078.3834      64.119383    
      7900   322.87624     -0.45452261    -3015.8581      0.00060713014 -3078.4162      62.558128    
      8000   345.60684     -1.2123225     -3011.489       0.00060685368 -3078.4513      66.962242    
      8100   318.84576      0.43991899    -3016.676       0.00060702756 -3078.4532      61.777211    
      8200   310.81124      0.44467394    -3018.2108      0.00060732871 -3078.4313      60.220503    
      8300   280.28758      2.1202483     -3024.1096      0.00060723523 -3078.416       54.306462    
      8400   260.38797      1.0841148     -3027.9653      0.00060684788 -3078.4162      50.45086     
      8500   296.80198      0.89264382    -3020.9079      0.00060655783 -3078.4141      57.506171    
      8600   266.01101      0.7660744     -3026.8679      0.00060663871 -3078.4082      51.540339    
      8700   248.58803      1.3571028     -3030.2318      0.00060704148 -3078.3964      48.16459     
      8800   274.36854      0.44052434    -3025.195       0.00060758487 -3078.3546      53.159633    
      8900   270.64831      0.1223485     -3025.8901      0.00060810565 -3078.3289      52.438829    
      9000   296.37958      1.4446304     -3020.9077      0.00060814592 -3078.3321      57.424331    
      9100   315.17632      1.6399219     -3017.2759      0.00060865302 -3078.3421      61.066249    
      9200   272.4686       1.1954455     -3025.5681      0.00060877384 -3078.3596      52.791515    
      9300   272.6868      -0.42314774    -3025.5645      0.00060912892 -3078.3983      52.833791    
      9400   271.06324      1.0581663     -3025.89        0.00060935565 -3078.4092      52.519222    
      9500   281.44094      0.79385538    -3023.8553      0.0006092177  -3078.3853      54.529929    
      9600   289.57535      1.5717519     -3022.2544      0.00060923217 -3078.3604      56.105993    
      9700   288.16362      1.4210286     -3022.5119      0.00060933509 -3078.3444      55.832466    
      9800   339.39551      0.98551567    -3012.578       0.00060940856 -3078.3368      65.758781    
      9900   337.89839      2.9494167     -3012.8793      0.00060940161 -3078.348       65.468709    
     10000   332.69223      2.0098596     -3013.8969      0.00060933384 -3078.357       64.460002    
Loop time of 571.468 on 1 procs for 10000 steps with 132 atoms

Performance: 0.378 ns/day, 63.496 hours/ns, 17.499 timesteps/s, 2.310 katom-step/s
100.0% CPU use with 1 MPI tasks x 1 OpenMP threads

MPI task timing breakdown:
Section |  min time  |  avg time  |  max time  |%varavg| %total
---------------------------------------------------------------
Pair    | 0.05231    | 0.05231    | 0.05231    |   0.0 |  0.01
Kspace  | 549.29     | 549.29     | 549.29     |   0.0 | 96.12
Neigh   | 0.016856   | 0.016856   | 0.016856   |   0.0 |  0.00
Comm    | 0.070252   | 0.070252   | 0.070252   |   0.0 |  0.01
Output  | 0.0049647  | 0.0049647  | 0.0049647  |   0.0 |  0.00
Modify  | 21.96      | 21.96      | 21.96      |   0.0 |  3.84
Other   |            | 0.07571    |            |       |  0.01

Nlocal:            132 ave         132 max         132 min
Histogram: 1 0 0 0 0 0 0 0 0 0
Nghost:             96 ave          96 max          96 min
Histogram: 1 0 0 0 0 0 0 0 0 0
Neighs:              0 ave           0 max           0 min
Histogram: 1 0 0 0 0 0 0 0 0 0

Total # of neighbors = 0
Ave neighs/atom = 0
Neighbor list builds = 221
Dangerous builds = 25
System init for write_data ...
EwaldDisp initialization ...
Generated 3 of 3 mixed pair_coeff terms from geometric mixing rule
  G vector = 0.2112234,   accuracy = 0.033206371
Generated 3 of 3 mixed pair_coeff terms from geometric mixing rule
WARNING: Neighbor exclusions used with KSpace solver may give inconsistent Coulombic energies (src/neighbor.cpp:658)
Total wall time: 0:09:31
