LAMMPS (2 Apr 2025)
OMP_NUM_THREADS environment is not set. Defaulting to 1 thread. (src/comm.cpp:99)
  using 1 OpenMP thread(s) per MPI task
package gpu 1
### set variables ###

### model parameters ###
variable	fname		equal first_test
variable	T		equal 298
variable	tDamp		equal 100
variable    	rcut		equal 10
variable    	ell		equal 46.9555045

### TIP4P/Ice w/out LJ interactions ###
units		real
atom_style	full
boundary        p p p
pair_style      lj/cut/tip4p/long 1 2 1 1 0.1546 ${rcut} ${rcut}
pair_style      lj/cut/tip4p/long 1 2 1 1 0.1546 10 ${rcut}
pair_style      lj/cut/tip4p/long 1 2 1 1 0.1546 10 10
bond_style      zero
angle_style     zero
kspace_style    pppm/tip4p 1e-4 # Default value from LAMMPS
read_data	water_eql.dat
Reading data file ...
  orthogonal box = (8.1722475 8.1722475 8.1722475) to (55.127752 55.127752 55.127752)
  1 by 1 by 1 MPI processor grid
  reading atoms ...
  10125 atoms
  reading velocities ...
  10125 velocities
  scanning bonds ...
  2 = max bonds/atom
  scanning angles ...
  1 = max angles/atom
  orthogonal box = (8.1722475 8.1722475 8.1722475) to (55.127752 55.127752 55.127752)
  1 by 1 by 1 MPI processor grid
  reading bonds ...
  6750 bonds
  reading angles ...
  3375 angles
Finding 1-2 1-3 1-4 neighbors ...
  special bond factors lj:    0        0        0       
  special bond factors coul:  0        0        0       
     2 = max # of 1-2 neighbors
     1 = max # of 1-3 neighbors
     1 = max # of 1-4 neighbors
     2 = max # of special neighbors
  special bonds CPU = 0.002 seconds
  read_data CPU = 0.109 seconds

mass 2 1.00794 # H
mass 1 15.9994 # O

bond_style zero
bond_coeff 1 0.9572

angle_style zero
angle_coeff 1 104.52

## LJ Coeffs
pair_coeff   2 2 0.00000 1      #Hw-Hw
pair_coeff   1 1 0.1852  3.1589 #Ow-Ow
pair_coeff   1 2 0.00000 1      #Hw-Ow

# create groups ###
group Ow type 1
3375 atoms in group Ow
group Hw type 2
6750 atoms in group Hw
group water type 1 2
10125 atoms in group water

## set charges manually ###
set group Ow charge -1.1128
Setting atom values ...
  3375 settings made for charge
set group Hw charge 0.5564
Setting atom values ...
  6750 settings made for charge

##########################################################################

# Choose particular neighbor list updating
neighbor            2.0 bin
neigh_modify        every 2 delay 10 check no

# Fix the water bonds to make a rigid molecule
fix                fxshake water shake 0.0001 20 0 b 1 a 1 t 1 2
Finding SHAKE clusters ...
       0 = # of size 2 clusters
       0 = # of size 3 clusters
       0 = # of size 4 clusters
    3375 = # of frozen angles
  find clusters CPU = 0.002 seconds

# Minimize energy of the system using CG
#min_style cg
#minimize           1.0e-6 1.0e-6 100000 400000

# Shrink the box
#fix                fxshrink all deform 1 x final 0.0 ${ell} y final 0.0 ${ell} z final 0.0 ${ell}
#thermo             100
#thermo_style       custom step time temp press vol density etail etotal pe lx ly lz
#timestep           0.2
#fix                fxnvtshrink all nvt temp ${T} ${T} ${tDamp}
#run                50000
#unfix              fxnvtshrink
#unfix              fxshrink

# Equilibrate the simulation in NVT.
thermo             100
thermo_style       custom step time temp press vol density etotal pe lx
timestep           1
fix                fxnvteq all nvt temp ${T} ${T} ${tDamp}
fix                fxnvteq all nvt temp 298 ${T} ${tDamp}
fix                fxnvteq all nvt temp 298 298 ${tDamp}
fix                fxnvteq all nvt temp 298 298 100
run                500000

CITE-CITE-CITE-CITE-CITE-CITE-CITE-CITE-CITE-CITE-CITE-CITE-CITE

Your simulation uses code contributions which should be cited:

- GPU package (short-range, long-range and three-body potentials): doi:10.1016/j.cpc.2010.12.021, doi:10.1016/j.cpc.2011.10.012, doi:10.1016/j.cpc.2013.08.002, doi:10.1016/j.commatsci.2014.10.068, doi:10.1016/j.cpc.2016.10.020, doi:10.3233/APC200086

@Article{Brown11,
 author = {W. M. Brown and P. Wang and S. J. Plimpton and A. N. Tharrington},
 title = {Implementing Molecular Dynamics on Hybrid High Performance Computers---Short Range Forces},
 journal = {Comput.\ Phys.\ Commun.},
 year =    2011,
 volume =  182,
 pages =   {898--911},
 doi =     {10.1016/j.cpc.2010.12.021}
}

@Article{Brown12,
 author = {W. M. Brown and A. Kohlmeyer and S. J. Plimpton and A. N. Tharrington},
 title = {Implementing Molecular Dynamics on Hybrid High Performance Computers - Particle-Particle Particle-Mesh},
 journal = {Comput.\ Phys.\ Commun.},
 year =    2012,
 volume =  183,
 doi =     {10.1016/j.cpc.2011.10.012},
 pages =   {449--459}
}

@Article{Brown13,
 author = {W. M. Brown and Y. Masako},
 title = {Implementing Molecular Dynamics on Hybrid High Performance Computers---Three-Body Potentials},
 journal = {Comput.\ Phys.\ Commun.},
 year =    2013,
 volume =  184,
 pages =   {2785--2793},
 doi =     {10.1016/j.cpc.2013.08.002},
}

@Article{Trung15,
 author = {T. D. Nguyen and S. J. Plimpton},
 title = {Accelerating Dissipative Particle Dynamics Simulations for Soft Matter Systems},
 journal = {Comput.\ Mater.\ Sci.},
 year =    2015,
 doi =     {10.1016/j.commatsci.2014.10.068},
 volume =  100,
 pages =   {173--180}
}

@Article{Trung17,
 author = {T. D. Nguyen},
 title = {{GPU}-Accelerated {T}ersoff Potentials for Massively Parallel
    Molecular Dynamics Simulations},
 journal = {Comput.\ Phys.\ Commun.},
 year =    2017,
 doi =     {10.1016/j.cpc.2016.10.020},
 volume =  212,
 pages =   {113--122}
}

@inproceedings{Nikolskiy19,
 author = {V. Nikolskiy and V. Stegailov},
 title = {{GPU} Acceleration of Four-Site Water Models in {LAMMPS}},
 booktitle = {Proceedings of the International Conference on Parallel
    Computing (ParCo 2019), Prague, Czech Republic},
 doi =     {10.3233/APC200086},
 year =    2019
}

CITE-CITE-CITE-CITE-CITE-CITE-CITE-CITE-CITE-CITE-CITE-CITE-CITE

PPPM initialization ...
  extracting TIP4P info from pair style
  using 12-bit tables for long-range coulomb (src/kspace.cpp:342)
  G vector (1/distance) = 0.27272235
  grid = 27 27 27
  stencil order = 5
  estimated absolute RMS force accuracy = 0.033845439
  estimated relative force accuracy = 0.00010192453
  using double precision KISS FFT
  3d grid and FFT values/proc = 39304 19683
WARNING: Communication cutoff 0 is shorter than a bond length based estimate of 3.4358. This may lead to errors. (src/comm.cpp:744)
WARNING: Increasing communication cutoff to 13.1118 for TIP4P GPU style (src/GPU/pair_lj_cut_tip4p_long_gpu.cpp:188)
Generated 0 of 1 mixed pair_coeff terms from geometric mixing rule
Per MPI rank memory allocation (min/avg/max) = 25.65 | 25.65 | 25.65 Mbytes
   Step          Time           Temp          Press          Volume        Density         TotEng         PotEng           Lx      
         0   0              298.57773     -1855.0297      103528.41      0.97522384    -33675.67      -39682.304      46.955505    
       100   100            285.26963     -648.48549      103528.41      0.97522384    -33509.01      -39247.918      46.955505    
       200   200            289.93781     -193.79965      103528.41      0.97522384    -33292.765     -39125.585      46.955505    
       300   300            291.31385     -282.18178      103528.41      0.97522384    -33077.912     -38938.415      46.955505    
       400   400            298.55433     -184.40346      103528.41      0.97522384    -32885.361     -38891.523      46.955505    
       500   500            299.34265     -129.34739      103528.41      0.97522384    -32768.207     -38790.229      46.955505    
       600   600            302.71955     -242.76194      103528.41      0.97522384    -32679.986     -38769.943      46.955505    
       700   700            300.26729      199.23966      103528.41      0.97522384    -32688.445     -38729.068      46.955505    
       800   800            299.0199      -38.310011      103528.41      0.97522384    -32775.05      -38790.578      46.955505    
       900   900            293.62668     -311.49095      103528.41      0.97522384    -32779.754     -38686.785      46.955505    
      1000   1000           296.80185     -250.73476      103528.41      0.97522384    -32642.267     -38613.175      46.955505    
      1100   1100           301.96571      138.51459      103528.41      0.97522384    -32584.271     -38659.062      46.955505    
      1200   1200           295.95234      158.31841      103528.41      0.97522384    -32600.095     -38553.912      46.955505    
      1300   1300           299.33276      48.231218      103528.41      0.97522384    -32634.802     -38656.625      46.955505    
      1400   1400           294.34271      39.800362      103528.41      0.97522384    -32748.781     -38670.216      46.955505    
      1500   1500           294.07322     -430.9298       103528.41      0.97522384    -32746.904     -38662.918      46.955505    
      1600   1600           295.8233       115.99214      103528.41      0.97522384    -32597.668     -38548.89       46.955505    
      1700   1700           296.15251     -195.90144      103528.41      0.97522384    -32552.375     -38510.22       46.955505    
      1800   1800           299.67867      166.87354      103528.41      0.97522384    -32525.154     -38553.936      46.955505    
      1900   1900           295.19936     -262.06918      103528.41      0.97522384    -32526.281     -38464.95       46.955505    
      2000   2000           299.49128     -49.475912      103528.41      0.97522384    -32465.493     -38490.505      46.955505    
      2100   2100           301.01687     -0.57627375     103528.41      0.97522384    -32404.295     -38459.998      46.955505    
      2200   2200           297.72394      186.24733      103528.41      0.97522384    -32409.662     -38399.12       46.955505    
      2300   2300           295.92513      147.11981      103528.41      0.97522384    -32528.8       -38482.07       46.955505    
      2400   2400           295.27073     -325.31322      103528.41      0.97522384    -32587.209     -38527.314      46.955505    
      2500   2500           295.11233     -23.779672      103528.41      0.97522384    -32533.249     -38470.167      46.955505    
      2600   2600           297.52595     -281.7607       103528.41      0.97522384    -32448.663     -38434.138      46.955505    
      2700   2700           304.40935     -267.05064      103528.41      0.97522384    -32255.598     -38379.549      46.955505    
      2800   2800           303.34818     -32.515602      103528.41      0.97522384    -32246.152     -38348.756      46.955505    
      2900   2900           298.47066     -173.27257      103528.41      0.97522384    -32350.362     -38354.842      46.955505    
      3000   3000           296.87619     -59.080095      103528.41      0.97522384    -32429.833     -38402.236      46.955505    
      3100   3100           300.04942     -287.45637      103528.41      0.97522384    -32457.442     -38493.683      46.955505    
      3200   3200           298.5931      -356.53106      103528.41      0.97522384    -32377.176     -38384.119      46.955505    
      3300   3300           299.79593     -270.31271      103528.41      0.97522384    -32231.193     -38262.334      46.955505    
      3400   3400           302.73684     -50.359427      103528.41      0.97522384    -32225.266     -38315.57       46.955505    
      3500   3500           300.04204     -443.70782      103528.41      0.97522384    -32318.742     -38354.833      46.955505    
      3600   3600           298.18094     -68.579842      103528.41      0.97522384    -32409.066     -38407.717      46.955505    
      3700   3700           297.38328     -337.33853      103528.41      0.97522384    -32430.418     -38413.022      46.955505    
      3800   3800           298.19852     -642.35997      103528.41      0.97522384    -32430.297     -38429.302      46.955505    
      3900   3900           302.41303     -165.38263      103528.41      0.97522384    -32342.487     -38426.278      46.955505    
      4000   4000           302.04792      40.544388      103528.41      0.97522384    -32211.831     -38288.276      46.955505    
      4100   4100           298.42534     -28.911578      103528.41      0.97522384    -32178.218     -38181.786      46.955505    
      4200   4200           301.18333     -412.07967      103528.41      0.97522384    -32214.942     -38273.993      46.955505    
      4300   4300           300.93472      40.642413      103528.41      0.97522384    -32264.515     -38318.565      46.955505    
      4400   4400           294.9352      -422.90208      103528.41      0.97522384    -32328.993     -38262.348      46.955505    
      4500   4500           297.48167      104.90573      103528.41      0.97522384    -32343.468     -38328.051      46.955505    
      4600   4600           295.09199     -295.84627      103528.41      0.97522384    -32366.841     -38303.351      46.955505    
      4700   4700           297.91581     -762.06762      103528.41      0.97522384    -32297.831     -38291.148      46.955505    
      4800   4800           303.09627     -136.22432      103528.41      0.97522384    -32182.273     -38279.808      46.955505    
      4900   4900           301.8358       217.76486      103528.41      0.97522384    -32241.68      -38313.857      46.955505    
      5000   5000           295.91561      28.417948      103528.41      0.97522384    -32361.334     -38314.412      46.955505    
      5100   5100           297.38127     -266.68461      103528.41      0.97522384    -32385.819     -38368.383      46.955505    
      5200   5200           296.51812     -181.5774       103528.41      0.97522384    -32364.357     -38329.557      46.955505    
      5300   5300           297.09899     -32.637149      103528.41      0.97522384    -32260.267     -38237.152      46.955505    
      5400   5400           300.73016     -183.91105      103528.41      0.97522384    -32171.638     -38221.573      46.955505    
      5500   5500           295.3455      -387.97604      103528.41      0.97522384    -32246.862     -38188.472      46.955505    
      5600   5600           295.73865     -495.77368      103528.41      0.97522384    -32400.437     -38349.955      46.955505    
      5700   5700           297.91558     -456.91384      103528.41      0.97522384    -32373.918     -38367.231      46.955505    
      5800   5800           297.41523     -226.39728      103528.41      0.97522384    -32335.771     -38319.018      46.955505    
      5900   5900           302.95881     -591.37466      103528.41      0.97522384    -32251.427     -38346.197      46.955505    
      6000   6000           302.20837     -571.73851      103528.41      0.97522384    -32119.478     -38199.151      46.955505    
      6100   6100           297.57042     -309.90752      103528.41      0.97522384    -32141.699     -38128.068      46.955505    
      6200   6200           296.0303      -598.96238      103528.41      0.97522384    -32303.161     -38258.547      46.955505    
      6300   6300           297.51001     -646.44957      103528.41      0.97522384    -32354.643     -38339.796      46.955505    
      6400   6400           296.80559     -380.47381      103528.41      0.97522384    -32314.649     -38285.631      46.955505    
      6500   6500           302.34145     -578.14847      103528.41      0.97522384    -32250.511     -38332.862      46.955505    
      6600   6600           298.51489     -20.708811      103528.41      0.97522384    -32301.058     -38306.427      46.955505    
      6700   6700           295.39142     -422.77574      103528.41      0.97522384    -32454.624     -38397.157      46.955505    
      6800   6800           297.16101     -411.21772      103528.41      0.97522384    -32475.169     -38453.302      46.955505    
      6900   6900           295.87177     -120.11254      103528.41      0.97522384    -32410.661     -38362.857      46.955505    
      7000   7000           300.344       -123.34216      103528.41      0.97522384    -32337.7       -38379.867      46.955505    
      7100   7100           295.13034     -14.362908      103528.41      0.97522384    -32289.85      -38227.131      46.955505    
      7200   7200           303.99861     -61.829766      103528.41      0.97522384    -32135.059     -38250.747      46.955505    
      7300   7300           303.84303     -173.45961      103528.41      0.97522384    -32187.001     -38299.559      46.955505    
      7400   7400           295.49149     -81.943808      103528.41      0.97522384    -32317.041     -38261.587      46.955505    
      7500   7500           296.95957      5.0928649      103528.41      0.97522384    -32345.295     -38319.375      46.955505    
      7600   7600           296.87157     -612.18071      103528.41      0.97522384    -32306.314     -38278.624      46.955505    
      7700   7700           302.72628     -595.67997      103528.41      0.97522384    -32179.722     -38269.814      46.955505    
      7800   7800           303.52633     -370.14732      103528.41      0.97522384    -32190.516     -38296.703      46.955505    
      7900   7900           296.90749      98.922048      103528.41      0.97522384    -32233.585     -38206.618      46.955505    
      8000   8000           299.27194     -266.23714      103528.41      0.97522384    -32292.133     -38312.733      46.955505    
      8100   8100           299.50061     -47.791153      103528.41      0.97522384    -32357.063     -38382.262      46.955505    
      8200   8200           300.68369     -78.496208      103528.41      0.97522384    -32391.32      -38440.32       46.955505    
      8300   8300           293.0685      -128.4411       103528.41      0.97522384    -32422.227     -38318.029      46.955505    
      8400   8400           295.68327     -137.49006      103528.41      0.97522384    -32337.309     -38285.713      46.955505    
      8500   8500           300.88175     -197.38367      103528.41      0.97522384    -32233.049     -38286.033      46.955505    
      8600   8600           300.95378     -162.14795      103528.41      0.97522384    -32256.716     -38311.15       46.955505    
      8700   8700           299.76333     -376.08634      103528.41      0.97522384    -32370.097     -38400.582      46.955505    
      8800   8800           298.64402     -285.45083      103528.41      0.97522384    -32393.172     -38401.14       46.955505    
      8900   8900           295.05911     -434.99172      103528.41      0.97522384    -32363.556     -38299.403      46.955505    
      9000   9000           301.20733     -243.93318      103528.41      0.97522384    -32237.751     -38297.285      46.955505    
      9100   9100           300.90622     -159.75803      103528.41      0.97522384    -32162.216     -38215.693      46.955505    
      9200   9200           299.87208     -442.31341      103528.41      0.97522384    -32212.561     -38245.233      46.955505    
      9300   9300           294.25788     -359.24875      103528.41      0.97522384    -32432.561     -38352.291      46.955505    
      9400   9400           297.7261      -407.28056      103528.41      0.97522384    -32418.778     -38408.279      46.955505    
      9500   9500           298.77849     -306.22752      103528.41      0.97522384    -32310.823     -38321.495      46.955505    
      9600   9600           301.77319      9.2475989      103528.41      0.97522384    -32233.659     -38304.577      46.955505    
      9700   9700           297.31634     -327.00367      103528.41      0.97522384    -32274.145     -38255.403      46.955505    
      9800   9800           290.68124     -206.01235      103528.41      0.97522384    -32400.901     -38248.677      46.955505    
      9900   9900           298.57481     -317.53665      103528.41      0.97522384    -32433.657     -38440.232      46.955505    
     10000   10000          296.68811     -195.79912      103528.41      0.97522384    -32442.401     -38411.021      46.955505    
     10100   10100          296.92669     -260.44439      103528.41      0.97522384    -32444.868     -38418.287      46.955505    
     10200   10200          295.6146      -250.61362      103528.41      0.97522384    -32405.185     -38352.208      46.955505    
     10300   10300          296.74067     -337.06663      103528.41      0.97522384    -32267.516     -38237.193      46.955505    
     10400   10400          300.91857     -410.08916      103528.41      0.97522384    -32162.193     -38215.919      46.955505    
     10500   10500          306.79072     -385.74815      103528.41      0.97522384    -32202.707     -38374.565      46.955505    
     10600   10600          301.86086     -620.49934      103528.41      0.97522384    -32355.776     -38428.458      46.955505    
     10700   10700          290.57343     -329.86064      103528.41      0.97522384    -32410.064     -38255.671      46.955505    
     10800   10800          299.84589     -243.98483      103528.41      0.97522384    -32340.908     -38373.054      46.955505    
     10900   10900          296.15281     -425.35752      103528.41      0.97522384    -32318.096     -38275.946      46.955505    
     11000   11000          296.23887     -230.65306      103528.41      0.97522384    -32262.362     -38221.943      46.955505    
     11100   11100          298.11548     -239.74916      103528.41      0.97522384    -32129.427     -38126.761      46.955505    
     11200   11200          301.98567     -335.34838      103528.41      0.97522384    -32071.973     -38147.166      46.955505    
     11300   11300          297.81214     -217.62482      103528.41      0.97522384    -32148.846     -38140.077      46.955505    
     11400   11400          299.43531     -443.60912      103528.41      0.97522384    -32237.257     -38261.143      46.955505    
     11500   11500          301.46321     -290.53605      103528.41      0.97522384    -32269.305     -38333.987      46.955505    
     11600   11600          302.16442     -44.094202      103528.41      0.97522384    -32301.206     -38379.995      46.955505    
     11700   11700          296.91561     -501.68389      103528.41      0.97522384    -32387.089     -38360.285      46.955505    
     11800   11800          297.84805     -44.322785      103528.41      0.97522384    -32432.289     -38424.243      46.955505    
     11900   11900          294.06945     -601.27899      103528.41      0.97522384    -32414.909     -38330.847      46.955505    
     12000   12000          295.86377     -325.28289      103528.41      0.97522384    -32370.237     -38322.273      46.955505    
     12100   12100          299.45615     -54.769706      103528.41      0.97522384    -32304.611     -38328.916      46.955505    
     12200   12200          297.60708     -337.30244      103528.41      0.97522384    -32277.128     -38264.235      46.955505    
     12300   12300          306.44125     -428.97988      103528.41      0.97522384    -32252.135     -38416.963      46.955505    
     12400   12400          298.59924     -213.23502      103528.41      0.97522384    -32196.954     -38204.02       46.955505    
     12500   12500          303.38352     -18.591844      103528.41      0.97522384    -32127.672     -38230.986      46.955505    
     12600   12600          301.86884     -484.92394      103528.41      0.97522384    -32193.872     -38266.714      46.955505    
     12700   12700          298.86544     -355.59083      103528.41      0.97522384    -32287.2       -38299.622      46.955505    
     12800   12800          299.02937     -94.069573      103528.41      0.97522384    -32339.94      -38355.66       46.955505    
     12900   12900          295.77922     -363.53552      103528.41      0.97522384    -32411.27      -38361.604      46.955505    
     13000   13000          290.68406     -572.09874      103528.41      0.97522384    -32490.023     -38337.856      46.955505    
     13100   13100          301.53416     -184.76912      103528.41      0.97522384    -32351.026     -38417.135      46.955505    
     13200   13200          297.30728     -21.14774       103528.41      0.97522384    -32297.685     -38278.761      46.955505    
     13300   13300          298.29512     -160.50968      103528.41      0.97522384    -32316.82      -38317.768      46.955505    
     13400   13400          298.07803     -47.285225      103528.41      0.97522384    -32344.766     -38341.347      46.955505    
     13500   13500          294.66718     -160.11897      103528.41      0.97522384    -32397.671     -38325.634      46.955505    
     13600   13600          295.90779     -6.9389737      103528.41      0.97522384    -32359.568     -38312.489      46.955505    
     13700   13700          299.2814      -207.74771      103528.41      0.97522384    -32236.557     -38257.347      46.955505    
     13800   13800          295.34097     -369.15998      103528.41      0.97522384    -32171.734     -38113.252      46.955505    
     13900   13900          297.9213      -398.76923      103528.41      0.97522384    -32133.776     -38127.204      46.955505    
     14000   14000          302.63913     -341.68843      103528.41      0.97522384    -32148.966     -38237.305      46.955505    
     14100   14100          294.49655     -247.66839      103528.41      0.97522384    -32308.19      -38232.721      46.955505    
     14200   14200          297.38791     -388.991        103528.41      0.97522384    -32360.78      -38343.477      46.955505    
     14300   14300          297.49252     -447.26326      103528.41      0.97522384    -32348.463     -38333.265      46.955505    
     14400   14400          297.68522     -259.25786      103528.41      0.97522384    -32217.024     -38205.702      46.955505    
     14500   14500          298.10217     -170.21205      103528.41      0.97522384    -32119.551     -38116.618      46.955505    
     14600   14600          301.32735     -238.8948       103528.41      0.97522384    -32125.582     -38187.531      46.955505    
     14700   14700          298.28737     -379.00062      103528.41      0.97522384    -32209.123     -38209.915      46.955505    
     14800   14800          298.82293     -270.87185      103528.41      0.97522384    -32317.865     -38329.431      46.955505    
     14900   14900          295.07133     -372.18665      103528.41      0.97522384    -32341.258     -38277.352      46.955505    
     15000   15000          298.03905     -256.79036      103528.41      0.97522384    -32317.748     -38313.544      46.955505    
     15100   15100          298.12857     -284.74271      103528.41      0.97522384    -32294.716     -38292.314      46.955505    
     15200   15200          301.82125     -133.04943      103528.41      0.97522384    -32250.103     -38321.988      46.955505    
     15300   15300          296.92209      59.80814       103528.41      0.97522384    -32288.577     -38261.903      46.955505    
     15400   15400          294.68863     -180.96874      103528.41      0.97522384    -32464.358     -38392.752      46.955505    
     15500   15500          296.52109     -176.67409      103528.41      0.97522384    -32490.758     -38456.018      46.955505    
     15600   15600          297.13635     -284.60571      103528.41      0.97522384    -32469.478     -38447.114      46.955505    
     15700   15700          298.98081     -48.701358      103528.41      0.97522384    -32347.322     -38362.065      46.955505    
     15800   15800          302.7318      -373.14955      103528.41      0.97522384    -32242.849     -38333.052      46.955505    
     15900   15900          296.19692     -207.58342      103528.41      0.97522384    -32278.486     -38237.223      46.955505    
     16000   16000          298.10046     -147.8472       103528.41      0.97522384    -32368.03      -38365.062      46.955505    
     16100   16100          295.31477     -382.02035      103528.41      0.97522384    -32426.334     -38367.325      46.955505    
     16200   16200          298.18391     -272.96632      103528.41      0.97522384    -32417.635     -38416.346      46.955505    
     16300   16300          300.56007     -14.145701      103528.41      0.97522384    -32410.964     -38457.478      46.955505    
     16400   16400          295.6415      -12.132654      103528.41      0.97522384    -32450.773     -38398.337      46.955505    
     16500   16500          296.43065     -414.46777      103528.41      0.97522384    -32414.134     -38377.573      46.955505    
     16600   16600          303.71998     -206.13497      103528.41      0.97522384    -32332.767     -38442.85       46.955505    
     16700   16700          297.99009     -264.09011      103528.41      0.97522384    -32319.4       -38314.211      46.955505    
     16800   16800          297.13809     -383.65971      103528.41      0.97522384    -32431.366     -38409.038      46.955505    
     16900   16900          295.804       -245.09615      103528.41      0.97522384    -32528.163     -38478.996      46.955505    
     17000   17000          295.00952     -472.5462       103528.41      0.97522384    -32507.691     -38442.542      46.955505    
     17100   17100          298.27877     -142.20834      103528.41      0.97522384    -32407.655     -38408.275      46.955505    
     17200   17200          301.80081      73.403608      103528.41      0.97522384    -32290.808     -38362.282      46.955505    
     17300   17300          299.41114     -198.43908      103528.41      0.97522384    -32299.721     -38323.12       46.955505    
     17400   17400          292.17041     -392.75616      103528.41      0.97522384    -32491.97      -38369.704      46.955505    
     17500   17500          300.09713     -20.906986      103528.41      0.97522384    -32480.981     -38518.181      46.955505    
     17600   17600          298.41594     -487.2113       103528.41      0.97522384    -32481.306     -38484.685      46.955505    
     17700   17700          301.74221     -418.38913      103528.41      0.97522384    -32413.596     -38483.892      46.955505    
     17800   17800          298.16008     -315.94271      103528.41      0.97522384    -32314.758     -38312.99       46.955505    
     17900   17900          298.26788     -569.7291       103528.41      0.97522384    -32234.661     -38235.062      46.955505    
     18000   18000          301.47448     -38.710607      103528.41      0.97522384    -32182.413     -38247.322      46.955505    
     18100   18100          301.57839     -396.47841      103528.41      0.97522384    -32203.327     -38270.326      46.955505    
     18200   18200          295.37        -267.0353       103528.41      0.97522384    -32355.306     -38297.408      46.955505    
     18300   18300          295.104       -243.84282      103528.41      0.97522384    -32437.44      -38374.191      46.955505    
     18400   18400          303.7168      -729.99099      103528.41      0.97522384    -32431.94      -38541.959      46.955505    
     18500   18500          298.1867      -372.88102      103528.41      0.97522384    -32431.562     -38430.329      46.955505    
     18600   18600          299.10022     -254.05365      103528.41      0.97522384    -32376.693     -38393.838      46.955505    
     18700   18700          298.26956     -263.5042       103528.41      0.97522384    -32299.522     -38299.956      46.955505    
     18800   18800          296.39614     -315.31245      103528.41      0.97522384    -32321.33      -38284.075      46.955505    
     18900   18900          297.01813     -543.21505      103528.41      0.97522384    -32412.122     -38387.38       46.955505    
     19000   19000          292.84848     -222.66957      103528.41      0.97522384    -32500.323     -38391.698      46.955505    
     19100   19100          294.65947     -74.95529       103528.41      0.97522384    -32434.165     -38361.973      46.955505    
     19200   19200          297.93255     -295.17616      103528.41      0.97522384    -32287.36      -38281.014      46.955505    
     19300   19300          298.68739     -94.532378      103528.41      0.97522384    -32268.34      -38277.18       46.955505    
     19400   19400          296.15504     -109.50338      103528.41      0.97522384    -32309.416     -38267.311      46.955505    
     19500   19500          296.67923     -379.20749      103528.41      0.97522384    -32333.868     -38302.309      46.955505    
     19600   19600          297.77603     -34.437746      103528.41      0.97522384    -32296.295     -38286.801      46.955505    
     19700   19700          306.90853     -134.86114      103528.41      0.97522384    -32167.865     -38342.093      46.955505    
     19800   19800          305.43155     -274.55586      103528.41      0.97522384    -32261.32      -38405.835      46.955505    
     19900   19900          296.08444     -186.68361      103528.41      0.97522384    -32380.097     -38336.572      46.955505    
     20000   20000          299.32564     -329.8559       103528.41      0.97522384    -32402.656     -38424.336      46.955505    
     20100   20100          297.30132     -225.74867      103528.41      0.97522384    -32432.1       -38413.055      46.955505    
     20200   20200          297.47158      62.821273      103528.41      0.97522384    -32439.798     -38424.179      46.955505    
     20300   20300          300.37328     -72.200571      103528.41      0.97522384    -32345.78      -38388.535      46.955505    
     20400   20400          302.80639     -191.11926      103528.41      0.97522384    -32263.196     -38354.899      46.955505    
     20500   20500          302.92251     -66.885503      103528.41      0.97522384    -32288.081     -38382.121      46.955505    
     20600   20600          297.72745     -196.66334      103528.41      0.97522384    -32468.997     -38458.525      46.955505    
     20700   20700          296.72054     -443.15134      103528.41      0.97522384    -32499.267     -38468.539      46.955505    
     20800   20800          297.45806     -47.875593      103528.41      0.97522384    -32498.584     -38482.693      46.955505    
     20900   20900          298.0748       19.633054      103528.41      0.97522384    -32545.475     -38541.991      46.955505    
     21000   21000          294.49469     -476.39977      103528.41      0.97522384    -32633.697     -38558.19       46.955505    
     21100   21100          296.00496     -172.64774      103528.41      0.97522384    -32645.035     -38599.911      46.955505    
     21200   21200          299.40484     -703.49272      103528.41      0.97522384    -32490.491     -38513.764      46.955505    
     21300   21300          299.16533     -496.83638      103528.41      0.97522384    -32397.254     -38415.709      46.955505    
     21400   21400          300.68499     -352.57567      103528.41      0.97522384    -32383.63      -38432.657      46.955505    
     21500   21500          293.32791     -404.2327       103528.41      0.97522384    -32386.985     -38288.005      46.955505    
     21600   21600          298.07052     -165.06531      103528.41      0.97522384    -32332.572     -38329.002      46.955505    
     21700   21700          302.84222      8.9140137      103528.41      0.97522384    -32228.437     -38320.862      46.955505    
     21800   21800          301.71839     -440.20989      103528.41      0.97522384    -32250.487     -38320.303      46.955505    
     21900   21900          295.48299     -450.28587      103528.41      0.97522384    -32387.239     -38331.615      46.955505    
     22000   22000          292.09312     -328.73598      103528.41      0.97522384    -32413.254     -38289.434      46.955505    
     22100   22100          296.64047     -481.62332      103528.41      0.97522384    -32339.921     -38307.582      46.955505    
     22200   22200          294.7519      -272.61513      103528.41      0.97522384    -32339.353     -38269.021      46.955505    
     22300   22300          297.77378     -384.58229      103528.41      0.97522384    -32303.181     -38293.641      46.955505    
     22400   22400          295.15389     -58.992605      103528.41      0.97522384    -32216.824     -38154.578      46.955505    
     22500   22500          299.25626     -307.06516      103528.41      0.97522384    -32093.691     -38113.975      46.955505    
     22600   22600          302.25042     -135.59406      103528.41      0.97522384    -32099.955     -38180.474      46.955505    
     22700   22700          294.65423     -409.732        103528.41      0.97522384    -32288.969     -38216.672      46.955505    
     22800   22800          297.88223     -147.53714      103528.41      0.97522384    -32272.865     -38265.507      46.955505    
     22900   22900          292.99144     -49.571923      103528.41      0.97522384    -32268.404     -38162.655      46.955505    
     23000   23000          301.1017      -221.52123      103528.41      0.97522384    -32199.94      -38257.35       46.955505    
     23100   23100          300.89555     -54.663763      103528.41      0.97522384    -32163.556     -38216.819      46.955505    
     23200   23200          299.45569     -642.42021      103528.41      0.97522384    -32218.543     -38242.839      46.955505    
     23300   23300          297.31512     -278.72223      103528.41      0.97522384    -32336.131     -38317.364      46.955505    
     23400   23400          297.74068     -238.76002      103528.41      0.97522384    -32356.595     -38346.389      46.955505    
     23500   23500          296.65574     -116.54068      103528.41      0.97522384    -32232.157     -38200.125      46.955505    
     23600   23600          299.58026     -235.74883      103528.41      0.97522384    -32108.25      -38135.052      46.955505    
     23700   23700          303.14715     -232.87801      103528.41      0.97522384    -32094.266     -38192.825      46.955505    
     23800   23800          299.52646      124.73351      103528.41      0.97522384    -32136.493     -38162.213      46.955505    
     23900   23900          298.84237     -160.37009      103528.41      0.97522384    -32255.73      -38267.687      46.955505    
     24000   24000          296.03182     -281.68111      103528.41      0.97522384    -32336.58      -38291.996      46.955505    
     24100   24100          298.23741     -275.52454      103528.41      0.97522384    -32330.226     -38330.013      46.955505    
     24200   24200          293.82635     -371.58001      103528.41      0.97522384    -32317.594     -38228.642      46.955505    
     24300   24300          297.76248     -447.27967      103528.41      0.97522384    -32287.389     -38277.622      46.955505    
     24400   24400          299.01149     -466.55944      103528.41      0.97522384    -32254.63      -38269.99       46.955505    
     24500   24500          298.54592     -285.79308      103528.41      0.97522384    -32258.999     -38264.993      46.955505    
     24600   24600          296.57108     -29.401117      103528.41      0.97522384    -32266.232     -38232.497      46.955505    
     24700   24700          296.79575     -458.40126      103528.41      0.97522384    -32320.58      -38291.365      46.955505    
     24800   24800          298.80261     -174.14704      103528.41      0.97522384    -32420.206     -38431.364      46.955505    
     24900   24900          291.3959      -126.07748      103528.41      0.97522384    -32533.662     -38395.815      46.955505    
     25000   25000          293.851        44.095288      103528.41      0.97522384    -32517.877     -38429.421      46.955505    
     25100   25100          296.6141      -51.81971       103528.41      0.97522384    -32428.8       -38395.93       46.955505    
     25200   25200          296.7626      -338.47724      103528.41      0.97522384    -32392.761     -38362.879      46.955505    
     25300   25300          292.92183     -22.928559      103528.41      0.97522384    -32360.626     -38253.478      46.955505    
     25400   25400          303.02643     -249.18675      103528.41      0.97522384    -32308.176     -38404.307      46.955505    
     25500   25500          300.4705      -58.379419      103528.41      0.97522384    -32334.329     -38379.04       46.955505    
     25600   25600          299.46679     -248.77862      103528.41      0.97522384    -32487.538     -38512.057      46.955505    
     25700   25700          294.7076      -278.10873      103528.41      0.97522384    -32545.621     -38474.398      46.955505    
     25800   25800          296.50074      40.501812      103528.41      0.97522384    -32486.909     -38451.759      46.955505    
     25900   25900          302.94208      11.306086      103528.41      0.97522384    -32418.723     -38513.157      46.955505    
     26000   26000          298.56735      100.35895      103528.41      0.97522384    -32436.217     -38442.642      46.955505    
     26100   26100          294.99631     -199.91268      103528.41      0.97522384    -32581.683     -38516.267      46.955505    
     26200   26200          292.01759      11.095432      103528.41      0.97522384    -32610.913     -38485.573      46.955505    
     26300   26300          300.02106     -247.79281      103528.41      0.97522384    -32494.371     -38530.041      46.955505    
     26400   26400          296.24426     -163.95823      103528.41      0.97522384    -32421.087     -38380.777      46.955505    
     26500   26500          296.13857     -147.58539      103528.41      0.97522384    -32361.345     -38318.909      46.955505    
     26600   26600          299.05704     -573.82531      103528.41      0.97522384    -32342.795     -38359.071      46.955505    
     26700   26700          301.78849     -27.38765       103528.41      0.97522384    -32310.228     -38381.454      46.955505    
     26800   26800          299.1133      -507.25948      103528.41      0.97522384    -32238.644     -38256.052      46.955505    
     26900   26900          298.69199     -277.51347      103528.41      0.97522384    -32144.66      -38153.592      46.955505    
     27000   27000          302.72759     -537.61911      103528.41      0.97522384    -32192.076     -38282.194      46.955505    
     27100   27100          299.05455     -673.96917      103528.41      0.97522384    -32316.311     -38332.537      46.955505    
     27200   27200          299.52276     -297.62245      103528.41      0.97522384    -32391.581     -38417.226      46.955505    
     27300   27300          297.28768     -370.87251      103528.41      0.97522384    -32408.474     -38389.155      46.955505    
     27400   27400          299.36307     -338.47092      103528.41      0.97522384    -32396.635     -38419.068      46.955505    
     27500   27500          296.93545     -157.89771      103528.41      0.97522384    -32385.545     -38359.14       46.955505    
     27600   27600          294.34795     -378.77497      103528.41      0.97522384    -32324.489     -38246.03       46.955505    
     27700   27700          302.26502     -435.9237       103528.41      0.97522384    -32206.642     -38287.454      46.955505    
     27800   27800          300.52661     -417.25184      103528.41      0.97522384    -32210.423     -38256.263      46.955505    
     27900   27900          300.89153     -327.79507      103528.41      0.97522384    -32287.726     -38340.907      46.955505    
     28000   28000          296.43134     -376.59612      103528.41      0.97522384    -32425.539     -38388.993      46.955505    
     28100   28100          295.84869     -215.37858      103528.41      0.97522384    -32453.979     -38405.711      46.955505    
     28200   28200          296.45954     -168.36262      103528.41      0.97522384    -32404.161     -38368.182      46.955505    
     28300   28300          299.46811     -147.73063      103528.41      0.97522384    -32370.559     -38395.105      46.955505    
     28400   28400          297.15241     -228.24379      103528.41      0.97522384    -32401.314     -38379.274      46.955505    
     28500   28500          294.82624     -564.45273      103528.41      0.97522384    -32556.591     -38487.754      46.955505    
     28600   28600          294.03596     -211.3107       103528.41      0.97522384    -32600.591     -38515.856      46.955505    
     28700   28700          295.24942     -286.9641       103528.41      0.97522384    -32514.507     -38454.184      46.955505    
     28800   28800          298.07677      132.07805      103528.41      0.97522384    -32488.324     -38484.88       46.955505    
     28900   28900          298.27218      288.33415      103528.41      0.97522384    -32482.36      -38482.846      46.955505    
     29000   29000          295.78701     -175.15479      103528.41      0.97522384    -32456.111     -38406.602      46.955505    
     29100   29100          300.52247     -62.610625      103528.41      0.97522384    -32297.69      -38343.447      46.955505    
     29200   29200          299.19475     -537.61482      103528.41      0.97522384    -32241.763     -38260.81       46.955505    
     29300   29300          299.13097     -381.74502      103528.41      0.97522384    -32249.919     -38267.683      46.955505    
     29400   29400          300.74156     -174.56779      103528.41      0.97522384    -32321.105     -38371.269      46.955505    
     29500   29500          294.51521     -124.94235      103528.41      0.97522384    -32490.313     -38415.219      46.955505    
     29600   29600          295.61597     -162.22757      103528.41      0.97522384    -32498.031     -38445.081      46.955505    
     29700   29700          300.80141     -412.51798      103528.41      0.97522384    -32460.47      -38511.838      46.955505    
     29800   29800          299.01871      151.24628      103528.41      0.97522384    -32380.518     -38396.023      46.955505    
     29900   29900          297.71532     -229.65373      103528.41      0.97522384    -32311.462     -38300.746      46.955505    
     30000   30000          303.80737      47.588509      103528.41      0.97522384    -32203.875     -38315.716      46.955505    
     30100   30100          300.41652     -268.26715      103528.41      0.97522384    -32238.009     -38281.634      46.955505    
     30200   30200          296.57914     -421.59141      103528.41      0.97522384    -32373.72      -38340.147      46.955505    
     30300   30300          299.40655     -193.68706      103528.41      0.97522384    -32382.232     -38405.539      46.955505    
     30400   30400          301.05345     -121.37409      103528.41      0.97522384    -32398.737     -38455.176      46.955505    
     30500   30500          294.39671     -391.86774      103528.41      0.97522384    -32498.986     -38421.508      46.955505    
     30600   30600          295.67108     -283.80429      103528.41      0.97522384    -32549.148     -38497.307      46.955505    
     30700   30700          296.30774     -184.57495      103528.41      0.97522384    -32526.599     -38487.566      46.955505    
     30800   30800          297.75502     -204.83157      103528.41      0.97522384    -32493.867     -38483.95       46.955505    
     30900   30900          296.85156     -93.506247      103528.41      0.97522384    -32430.138     -38402.046      46.955505    
     31000   31000          299.11166     -240.02151      103528.41      0.97522384    -32364.787     -38382.162      46.955505    
     31100   31100          301.34181     -184.18134      103528.41      0.97522384    -32316.003     -38378.242      46.955505    
     31200   31200          302.02992     -435.79498      103528.41      0.97522384    -32283.14      -38359.223      46.955505    
     31300   31300          297.29036     -161.78196      103528.41      0.97522384    -32356.534     -38337.269      46.955505    
     31400   31400          297.05774     -257.65376      103528.41      0.97522384    -32461.584     -38437.64       46.955505    
     31500   31500          298.78427     -126.13885      103528.41      0.97522384    -32521.756     -38532.545      46.955505    
     31600   31600          291.60174      247.26906      103528.41      0.97522384    -32516.616     -38382.911      46.955505    
     31700   31700          299.5716      -150.33226      103528.41      0.97522384    -32334.764     -38361.392      46.955505    
     31800   31800          298.70197     -329.23727      103528.41      0.97522384    -32296.494     -38305.627      46.955505    
     31900   31900          300.04529     -472.79814      103528.41      0.97522384    -32327.717     -38363.875      46.955505    
     32000   32000          295.26278      89.222705      103528.41      0.97522384    -32325.118     -38265.063      46.955505    
     32100   32100          299.6974      -48.425843      103528.41      0.97522384    -32208.776     -38237.934      46.955505    
     32200   32200          302.99367     -507.20211      103528.41      0.97522384    -32146.53      -38242.001      46.955505    
     32300   32300          299.05935     -376.58741      103528.41      0.97522384    -32224.662     -38240.985      46.955505    
     32400   32400          296.81945     -366.25639      103528.41      0.97522384    -32339.895     -38311.157      46.955505    
     32500   32500          296.5738      -401.31442      103528.41      0.97522384    -32346.824     -38313.144      46.955505    
     32600   32600          299.49845     -64.146058      103528.41      0.97522384    -32320.214     -38345.37       46.955505    
     32700   32700          298.24204     -90.275735      103528.41      0.97522384    -32303.297     -38303.177      46.955505    
     32800   32800          297.35287     -159.14346      103528.41      0.97522384    -32231.06      -38213.053      46.955505    
     32900   32900          297.09417     -182.96461      103528.41      0.97522384    -32111.95      -38088.738      46.955505    
     33000   33000          300.72094     -403.4234       103528.41      0.97522384    -32064.572     -38114.321      46.955505    
     33100   33100          298.77228     -180.17174      103528.41      0.97522384    -32157.289     -38167.836      46.955505    
     33200   33200          294.60985      152.27029      103528.41      0.97522384    -32308.27      -38235.08       46.955505    
     33300   33300          298.76701      31.168604      103528.41      0.97522384    -32286.032     -38296.473      46.955505    
     33400   33400          302.75951     -205.63341      103528.41      0.97522384    -32235.372     -38326.133      46.955505    
     33500   33500          301.79256     -105.05177      103528.41      0.97522384    -32186.003     -38257.311      46.955505    
     33600   33600          297.13818     -36.610369      103528.41      0.97522384    -32141.304     -38118.978      46.955505    
     33700   33700          299.69147      87.681497      103528.41      0.97522384    -32137.238     -38166.278      46.955505    
     33800   33800          299.20358     -4.3613565      103528.41      0.97522384    -32268.03      -38287.254      46.955505    
     33900   33900          295.84925     -111.27923      103528.41      0.97522384    -32347.965     -38299.709      46.955505    
     34000   34000          296.23068     -213.84758      103528.41      0.97522384    -32361.752     -38321.169      46.955505    
     34100   34100          298.06545     -133.16781      103528.41      0.97522384    -32224.296     -38220.624      46.955505    
     34200   34200          300.72273     -304.44582      103528.41      0.97522384    -32171.353     -38221.139      46.955505    
     34300   34300          300.88249     -314.60984      103528.41      0.97522384    -32231.41      -38284.41       46.955505    
     34400   34400          294.94517     -479.06154      103528.41      0.97522384    -32313.094     -38246.65       46.955505    
     34500   34500          297.48508     -169.72259      103528.41      0.97522384    -32339.966     -38324.619      46.955505    
     34600   34600          301.65362     -243.2459       103528.41      0.97522384    -32406.334     -38474.847      46.955505    
     34700   34700          291.18517     -367.30416      103528.41      0.97522384    -32554.138     -38412.052      46.955505    
     34800   34800          296.60853     -110.65366      103528.41      0.97522384    -32460.104     -38427.122      46.955505    
     34900   34900          298.01861     -616.86008      103528.41      0.97522384    -32367.162     -38362.547      46.955505    
     35000   35000          300.42849     -74.68346       103528.41      0.97522384    -32311.31      -38355.176      46.955505    
     35100   35100          298.41609     -49.314303      103528.41      0.97522384    -32332.648     -38336.029      46.955505    
     35200   35200          292.26537     -259.67958      103528.41      0.97522384    -32429.073     -38308.718      46.955505    
     35300   35300          296.40203     -272.89787      103528.41      0.97522384    -32413.511     -38376.375      46.955505    
     35400   35400          298.92772     -16.591184      103528.41      0.97522384    -32284.348     -38298.023      46.955505    
     35500   35500          296.62776     -437.82919      103528.41      0.97522384    -32249.785     -38217.19       46.955505    
     35600   35600          298.56902      150.37241      103528.41      0.97522384    -32216.43      -38222.889      46.955505    
     35700   35700          297.52078     -245.2018       103528.41      0.97522384    -32101.331     -38086.701      46.955505    
     35800   35800          300.37401     -212.2303       103528.41      0.97522384    -31991.992     -38034.762      46.955505    
     35900   35900          302.22625     -393.82219      103528.41      0.97522384    -32052.029     -38132.062      46.955505    
     36000   36000          296.31018     -496.19452      103528.41      0.97522384    -32156.569     -38117.585      46.955505    
     36100   36100          300.23772     -489.17611      103528.41      0.97522384    -32166.828     -38206.856      46.955505    
     36200   36200          298.4264      -81.237872      103528.41      0.97522384    -32174.242     -38177.831      46.955505    
     36300   36300          298.1632      -238.49541      103528.41      0.97522384    -32258.155     -38256.45       46.955505    
     36400   36400          293.87168     -736.48123      103528.41      0.97522384    -32399.984     -38311.944      46.955505    
     36500   36500          295.25752     -145.44083      103528.41      0.97522384    -32380.335     -38320.174      46.955505    
     36600   36600          298.57947     -533.60346      103528.41      0.97522384    -32322.789     -38329.457      46.955505    
     36700   36700          296.21688     -550.38103      103528.41      0.97522384    -32296.534     -38255.673      46.955505    
     36800   36800          296.36488     -335.14497      103528.41      0.97522384    -32241.754     -38203.871      46.955505    
     36900   36900          299.24174     -594.46203      103528.41      0.97522384    -32187.46      -38207.452      46.955505    
     37000   37000          298.98019     -424.80372      103528.41      0.97522384    -32179.82      -38194.55       46.955505    
     37100   37100          298.52085     -324.39118      103528.41      0.97522384    -32252.073     -38257.562      46.955505    
     37200   37200          293.04206      23.612633      103528.41      0.97522384    -32290.747     -38186.017      46.955505    
     37300   37300          295.79136     -326.25863      103528.41      0.97522384    -32248.031     -38198.61       46.955505    
     37400   37400          296.68294     -296.62787      103528.41      0.97522384    -32145.183     -38113.698      46.955505    
     37500   37500          296.80985      185.80183      103528.41      0.97522384    -32121.433     -38092.502      46.955505    
     37600   37600          300.44856     -342.55241      103528.41      0.97522384    -32184.801     -38229.071      46.955505    
     37700   37700          288.81849     -271.20833      103528.41      0.97522384    -32294.895     -38105.197      46.955505    
     37800   37800          294.42127     -483.32753      103528.41      0.97522384    -32273.954     -38196.97       46.955505    
     37900   37900          297.6812      -339.60248      103528.41      0.97522384    -32225.554     -38214.152      46.955505    
     38000   38000          299.77841     -111.38516      103528.41      0.97522384    -32203.146     -38233.935      46.955505    
     38100   38100          294.22626     -400.90306      103528.41      0.97522384    -32309.239     -38228.332      46.955505    
     38200   38200          290.87171     -279.10468      103528.41      0.97522384    -32386.061     -38237.669      46.955505    
     38300   38300          296.12523     -628.51122      103528.41      0.97522384    -32319.339     -38276.635      46.955505    
     38400   38400          295.3211      -399.03632      103528.41      0.97522384    -32293.372     -38234.49       46.955505    
     38500   38500          295.85201     -519.9661       103528.41      0.97522384    -32284.275     -38236.074      46.955505    
     38600   38600          299.81726     -180.92831      103528.41      0.97522384    -32247.133     -38278.703      46.955505    
     38700   38700          296.10285     -475.50463      103528.41      0.97522384    -32329.731     -38286.576      46.955505    
     38800   38800          294.06353     -571.10551      103528.41      0.97522384    -32469.436     -38385.255      46.955505    
     38900   38900          298.33962     -220.7113       103528.41      0.97522384    -32417.056     -38418.899      46.955505    
     39000   39000          298.27478     -239.58224      103528.41      0.97522384    -32365.323     -38365.862      46.955505    
     39100   39100          302.56535     -358.41466      103528.41      0.97522384    -32336.34      -38423.194      46.955505    
     39200   39200          300.63506     -329.17689      103528.41      0.97522384    -32308.387     -38356.409      46.955505    
     39300   39300          299.87636     -193.42985      103528.41      0.97522384    -32280.644     -38313.402      46.955505    
     39400   39400          298.03238     -403.64704      103528.41      0.97522384    -32309.853     -38305.515      46.955505    
     39500   39500          296.22665     -239.29414      103528.41      0.97522384    -32395.621     -38354.956      46.955505    
     39600   39600          297.23245     -124.89615      103528.41      0.97522384    -32476.767     -38456.337      46.955505    
     39700   39700          298.25614     -10.277162      103528.41      0.97522384    -32514.732     -38514.896      46.955505    
     39800   39800          298.04175     -250.94594      103528.41      0.97522384    -32553.727     -38549.579      46.955505    
     39900   39900          299.32419     -291.00887      103528.41      0.97522384    -32534.557     -38556.208      46.955505    
     40000   40000          298.83382     -238.19489      103528.41      0.97522384    -32403.072     -38414.857      46.955505    
     40100   40100          295.97211     -121.0601       103528.41      0.97522384    -32351.931     -38306.146      46.955505    
     40200   40200          300.41073     -76.28699       103528.41      0.97522384    -32358.692     -38402.201      46.955505    
     40300   40300          292.74802      61.133136      103528.41      0.97522384    -32503.815     -38393.17       46.955505    
     40400   40400          292.40083     -358.30488      103528.41      0.97522384    -32546.147     -38428.517      46.955505    
     40500   40500          295.97978     -374.87773      103528.41      0.97522384    -32457.686     -38412.055      46.955505    
     40600   40600          300.04295     -47.802433      103528.41      0.97522384    -32363.682     -38399.792      46.955505    
     40700   40700          297.76659     -252.08541      103528.41      0.97522384    -32337.869     -38328.185      46.955505    
     40800   40800          299.10665     -45.877765      103528.41      0.97522384    -32377.369     -38394.644      46.955505    
     40900   40900          291.64141     -484.25839      103528.41      0.97522384    -32501.517     -38368.609      46.955505    
     41000   41000          291.84268     -458.04515      103528.41      0.97522384    -32546.076     -38417.217      46.955505    
     41100   41100          295.46453     -401.42831      103528.41      0.97522384    -32382.058     -38326.062      46.955505    
     41200   41200          296.91081      102.40208      103528.41      0.97522384    -32301.82      -38274.919      46.955505    
     41300   41300          305.15803     -19.713668      103528.41      0.97522384    -32331.593     -38470.605      46.955505    
     41400   41400          299.09854     -394.82185      103528.41      0.97522384    -32456.773     -38473.884      46.955505    
     41500   41500          296.19658     -200.34706      103528.41      0.97522384    -32466.301     -38425.032      46.955505    
     41600   41600          302.71331     -68.423988      103528.41      0.97522384    -32371.975     -38461.806      46.955505    
     41700   41700          301.55661      65.94451       103528.41      0.97522384    -32353.601     -38420.162      46.955505    
     41800   41800          298.07057     -36.464966      103528.41      0.97522384    -32384.164     -38380.595      46.955505    
     41900   41900          296.07575     -107.02734      103528.41      0.97522384    -32394.717     -38351.017      46.955505    
     42000   42000          298.38512     -380.05655      103528.41      0.97522384    -32369.608     -38372.367      46.955505    
     42100   42100          294.30081     -11.20284       103528.41      0.97522384    -32371.079     -38291.672      46.955505    
     42200   42200          297.84522     -180.61887      103528.41      0.97522384    -32299.637     -38291.534      46.955505    
     42300   42300          297.14872      12.580668      103528.41      0.97522384    -32217.874     -38195.759      46.955505    
     42400   42400          298.56159     -472.87731      103528.41      0.97522384    -32250.766     -38257.075      46.955505    
     42500   42500          297.18351     -334.75256      103528.41      0.97522384    -32365.959     -38344.544      46.955505    
     42600   42600          295.21318      1.1767865      103528.41      0.97522384    -32435.828     -38374.775      46.955505    
     42700   42700          295.47187     -313.53277      103528.41      0.97522384    -32433.92      -38378.071      46.955505    
     42800   42800          298.48888     -96.850218      103528.41      0.97522384    -32435.745     -38440.592      46.955505    
     42900   42900          299.64597      110.01813      103528.41      0.97522384    -32368.44      -38396.564      46.955505    
     43000   43000          295.88191     -374.28137      103528.41      0.97522384    -32292.257     -38244.658      46.955505    
     43100   43100          302.23658      113.98196      103528.41      0.97522384    -32235.992     -38316.232      46.955505    
     43200   43200          296.4884      -159.50718      103528.41      0.97522384    -32262.47      -38227.072      46.955505    
     43300   43300          300.59341     -211.66961      103528.41      0.97522384    -32391.901     -38439.085      46.955505    
     43400   43400          291.95315     -167.12752      103528.41      0.97522384    -32468.481     -38341.845      46.955505    
     43500   43500          297.14362     -285.35905      103528.41      0.97522384    -32397.75      -38375.533      46.955505    
     43600   43600          296.11423     -161.53918      103528.41      0.97522384    -32350.073     -38307.147      46.955505    
     43700   43700          297.75662     -298.38281      103528.41      0.97522384    -32301.112     -38291.227      46.955505    
     43800   43800          303.09813      84.685282      103528.41      0.97522384    -32249.092     -38346.665      46.955505    
     43900   43900          296.69981     -387.91636      103528.41      0.97522384    -32347.176     -38316.03       46.955505    
     44000   44000          293.09561      55.620743      103528.41      0.97522384    -32487.543     -38383.89       46.955505    
     44100   44100          291.63112     -9.3015006      103528.41      0.97522384    -32645.698     -38512.583      46.955505    
     44200   44200          290.03855     -287.22401      103528.41      0.97522384    -32747.701     -38582.548      46.955505    
     44300   44300          293.2223       8.254646       103528.41      0.97522384    -32648.987     -38547.883      46.955505    
     44400   44400          292.16929      380.06731      103528.41      0.97522384    -32525.294     -38403.006      46.955505    
     44500   44500          296.6194       40.754155      103528.41      0.97522384    -32430.757     -38397.994      46.955505    
     44600   44600          301.35263      45.632682      103528.41      0.97522384    -32347.982     -38410.439      46.955505    
     44700   44700          295.8687      -247.45617      103528.41      0.97522384    -32294.509     -38246.644      46.955505    
     44800   44800          296.67611     -118.45193      103528.41      0.97522384    -32222.218     -38190.596      46.955505    
     44900   44900          306.11745     -247.63693      103528.41      0.97522384    -32100.145     -38258.459      46.955505    
     45000   45000          302.86855     -191.31245      103528.41      0.97522384    -32151.035     -38243.989      46.955505    
     45100   45100          297.30108     -453.91522      103528.41      0.97522384    -32319.751     -38300.701      46.955505    
     45200   45200          298.17243     -590.16725      103528.41      0.97522384    -32365.952     -38364.432      46.955505    
     45300   45300          297.09017     -636.4721       103528.41      0.97522384    -32348.573     -38325.28       46.955505    
     45400   45400          299.21559     -563.48196      103528.41      0.97522384    -32242.593     -38262.059      46.955505    
     45500   45500          304.8282      -346.81494      103528.41      0.97522384    -32178.194     -38310.572      46.955505    
     45600   45600          296.79374      138.66786      103528.41      0.97522384    -32314.278     -38285.022      46.955505    
     45700   45700          300.03134      1.6543325      103528.41      0.97522384    -32411.193     -38447.07       46.955505    
     45800   45800          296.5947      -515.48655      103528.41      0.97522384    -32433.405     -38400.145      46.955505    
     45900   45900          295.46901     -453.99291      103528.41      0.97522384    -32461.883     -38405.977      46.955505    
     46000   46000          295.21456     -252.67302      103528.41      0.97522384    -32459.228     -38398.203      46.955505    
     46100   46100          297.18452     -194.76778      103528.41      0.97522384    -32321.851     -38300.457      46.955505    
     46200   46200          298.13944      10.508475      103528.41      0.97522384    -32240.44      -38238.256      46.955505    
     46300   46300          300.83423     -136.55565      103528.41      0.97522384    -32235.025     -38287.054      46.955505    
     46400   46400          299.62515     -87.578715      103528.41      0.97522384    -32349.145     -38376.851      46.955505    
     46500   46500          295.52969     -152.18304      103528.41      0.97522384    -32429.228     -38374.543      46.955505    
     46600   46600          293.98336     -329.36283      103528.41      0.97522384    -32405.575     -38319.781      46.955505    
     46700   46700          299.77891     -309.0526       103528.41      0.97522384    -32287.777     -38318.575      46.955505    
     46800   46800          300.96588     -75.124467      103528.41      0.97522384    -32225.107     -38279.784      46.955505    
     46900   46900          300.33018     -70.742637      103528.41      0.97522384    -32286.678     -38328.567      46.955505    
     47000   47000          296.80548     -224.85024      103528.41      0.97522384    -32394.3       -38365.28       46.955505    
     47100   47100          297.96341     -316.49039      103528.41      0.97522384    -32383.015     -38377.29       46.955505    
     47200   47200          296.73057     -481.60265      103528.41      0.97522384    -32335.608     -38305.082      46.955505    
     47300   47300          300.56792      212.68665      103528.41      0.97522384    -32268.944     -38315.615      46.955505    
     47400   47400          300.70073     -530.95837      103528.41      0.97522384    -32386.076     -38435.419      46.955505    
     47500   47500          295.23785     -250.19023      103528.41      0.97522384    -32483.635     -38423.078      46.955505    
     47600   47600          298.85943     -104.42734      103528.41      0.97522384    -32430.58      -38442.881      46.955505    
     47700   47700          301.37955     -190.06659      103528.41      0.97522384    -32347.323     -38410.322      46.955505    
     47800   47800          300.79861     -387.19625      103528.41      0.97522384    -32300.32      -38351.633      46.955505    
     47900   47900          300.8903      -286.57227      103528.41      0.97522384    -32278.597     -38331.753      46.955505    
     48000   48000          304.39028     -19.845701      103528.41      0.97522384    -32304.192     -38427.759      46.955505    
     48100   48100          295.57711     -318.93882      103528.41      0.97522384    -32413.431     -38359.7        46.955505    
     48200   48200          296.2087      -390.97183      103528.41      0.97522384    -32417.189     -38376.164      46.955505    
     48300   48300          299.02649     -44.795585      103528.41      0.97522384    -32336.626     -38352.287      46.955505    
     48400   48400          297.43444     -78.473986      103528.41      0.97522384    -32303.01      -38286.643      46.955505    
     48500   48500          293.02931     -194.16968      103528.41      0.97522384    -32382.347     -38277.361      46.955505    
     48600   48600          295.84744     -121.49473      103528.41      0.97522384    -32478.32      -38430.027      46.955505    
     48700   48700          295.35732     -70.189622      103528.41      0.97522384    -32505.731     -38447.578      46.955505    
     48800   48800          298.36571     -452.6948       103528.41      0.97522384    -32430.147     -38432.515      46.955505    
     48900   48900          303.14334      8.558112       103528.41      0.97522384    -32307.51      -38405.992      46.955505    
     49000   49000          299.59341      4.2772016      103528.41      0.97522384    -32349.032     -38376.098      46.955505    
     49100   49100          298.64286     -307.22702      103528.41      0.97522384    -32434.65      -38442.594      46.955505    
     49200   49200          292.46892     -168.74821      103528.41      0.97522384    -32472.076     -38355.816      46.955505    
     49300   49300          299.01338     -287.26078      103528.41      0.97522384    -32302.642     -38318.04       46.955505    
     49400   49400          300.14681      57.671452      103528.41      0.97522384    -32230.453     -38268.653      46.955505    
     49500   49500          298.08163      103.26389      103528.41      0.97522384    -32317.237     -38313.89       46.955505    
     49600   49600          299.16066      78.00661       103528.41      0.97522384    -32420.89      -38439.25       46.955505    
     49700   49700          294.22153     -40.952411      103528.41      0.97522384    -32449.93      -38368.927      46.955505    
     49800   49800          300.48208     -309.22678      103528.41      0.97522384    -32340.776     -38385.72       46.955505    
     49900   49900          299.62657     -293.44933      103528.41      0.97522384    -32281.634     -38309.367      46.955505    
     50000   50000          299.00901     -533.06576      103528.41      0.97522384    -32306.414     -38321.724      46.955505    
     50100   50100          294.23058     -94.826161      103528.41      0.97522384    -32321.497     -38240.677      46.955505    
     50200   50200          296.53256     -417.24028      103528.41      0.97522384    -32243.701     -38209.191      46.955505    
     50300   50300          305.63833     -306.53956      103528.41      0.97522384    -32093.365     -38242.04       46.955505    
     50400   50400          307.62454     -70.160648      103528.41      0.97522384    -32150.696     -38339.329      46.955505    
     50500   50500          298.7563      -70.055489      103528.41      0.97522384    -32289.505     -38299.731      46.955505    
     50600   50600          298.94151     -123.18753      103528.41      0.97522384    -32337.371     -38351.323      46.955505    
     50700   50700          296.28574     -0.5162769      103528.41      0.97522384    -32401.328     -38361.853      46.955505    
     50800   50800          294.30814      149.2743       103528.41      0.97522384    -32501.252     -38421.992      46.955505    
     50900   50900          295.73426     -294.86653      103528.41      0.97522384    -32555.765     -38505.195      46.955505    
     51000   51000          294.21784     -205.48951      103528.41      0.97522384    -32413.624     -38332.548      46.955505    
     51100   51100          299.75158      53.552583      103528.41      0.97522384    -32317.13      -38347.379      46.955505    
     51200   51200          300.35747     -82.849616      103528.41      0.97522384    -32341.458     -38383.896      46.955505    
     51300   51300          296.14667     -549.51372      103528.41      0.97522384    -32383.244     -38340.971      46.955505    
     51400   51400          303.32355     -109.14133      103528.41      0.97522384    -32283.498     -38385.606      46.955505    
     51500   51500          300.74199      92.020477      103528.41      0.97522384    -32277.211     -38327.385      46.955505    
     51600   51600          302.52679     -271.30213      103528.41      0.97522384    -32380.322     -38466.401      46.955505    
     51700   51700          296.29203     -28.898001      103528.41      0.97522384    -32428.782     -38389.433      46.955505    
     51800   51800          299.35202     -297.58242      103528.41      0.97522384    -32423.863     -38446.073      46.955505    
     51900   51900          297.62391     -202.35921      103528.41      0.97522384    -32390.699     -38378.144      46.955505    
     52000   52000          298.70782     -138.1583       103528.41      0.97522384    -32306.441     -38315.691      46.955505    
     52100   52100          299.98959     -37.372894      103528.41      0.97522384    -32239.932     -38274.969      46.955505    
     52200   52200          300.98779     -41.654082      103528.41      0.97522384    -32137.289     -38192.407      46.955505    
     52300   52300          304.81556     -192.1273       103528.41      0.97522384    -32167.228     -38299.351      46.955505    
     52400   52400          299.47078     -357.35922      103528.41      0.97522384    -32310.935     -38335.535      46.955505    
     52500   52500          298.89696     -294.75803      103528.41      0.97522384    -32383.403     -38396.459      46.955505    
     52600   52600          297.33173     -186.47033      103528.41      0.97522384    -32463.389     -38444.957      46.955505    
     52700   52700          297.88536     -486.21301      103528.41      0.97522384    -32522.171     -38514.876      46.955505    
     52800   52800          292.62948     -217.80507      103528.41      0.97522384    -32451.884     -38338.854      46.955505    
     52900   52900          297.48738     -349.15         103528.41      0.97522384    -32331.898     -38316.596      46.955505    
     53000   53000          297.9742      -92.326147      103528.41      0.97522384    -32276.675     -38271.167      46.955505    
     53100   53100          297.7358      -42.498462      103528.41      0.97522384    -32276.048     -38265.744      46.955505    
     53200   53200          296.03992     -585.98385      103528.41      0.97522384    -32376.98      -38332.559      46.955505    
     53300   53300          295.22762     -230.18178      103528.41      0.97522384    -32373.235     -38312.473      46.955505    
     53400   53400          299.17767     -30.508209      103528.41      0.97522384    -32229.658     -38248.361      46.955505    
     53500   53500          297.8312       134.33945      103528.41      0.97522384    -32189.763     -38181.378      46.955505    
     53600   53600          300.55188     -288.26235      103528.41      0.97522384    -32215.061     -38261.409      46.955505    
     53700   53700          298.63715     -379.42842      103528.41      0.97522384    -32262.16      -38269.989      46.955505    
     53800   53800          294.48157     -401.03772      103528.41      0.97522384    -32345.679     -38269.908      46.955505    
     53900   53900          296.63027     -341.94105      103528.41      0.97522384    -32347.096     -38314.552      46.955505    
     54000   54000          303.63716     -10.299395      103528.41      0.97522384    -32250.491     -38358.907      46.955505    
     54100   54100          302.49232     -68.362943      103528.41      0.97522384    -32231.918     -38317.304      46.955505    
     54200   54200          294.56024     -148.45335      103528.41      0.97522384    -32338.678     -38264.49       46.955505    
     54300   54300          294.23692     -262.96414      103528.41      0.97522384    -32390.855     -38310.162      46.955505    
     54400   54400          297.21402     -427.12706      103528.41      0.97522384    -32443.316     -38422.515      46.955505    
     54500   54500          291.84462     -565.07244      103528.41      0.97522384    -32586.25      -38457.43       46.955505    
     54600   54600          294.2185      -588.22238      103528.41      0.97522384    -32552.183     -38471.12       46.955505    
     54700   54700          298.86984      189.95777      103528.41      0.97522384    -32437.7       -38450.21       46.955505    
     54800   54800          298.72832     -668.59132      103528.41      0.97522384    -32416.656     -38426.319      46.955505    
     54900   54900          298.19115     -723.65588      103528.41      0.97522384    -32369.009     -38367.866      46.955505    
     55000   55000          297.62523     -370.6361       103528.41      0.97522384    -32300.276     -38287.747      46.955505    
     55100   55100          304.06288     -94.162294      103528.41      0.97522384    -32204.871     -38321.852      46.955505    
     55200   55200          301.94531     -280.98317      103528.41      0.97522384    -32101.179     -38175.56       46.955505    
     55300   55300          300.98327     -471.91266      103528.41      0.97522384    -32085.891     -38140.918      46.955505    
[...]
    110100   110100         298.35512     -463.02957      103528.41      0.97522384    -32310.657     -38312.813      46.955505    
    110200   110200         294.97926     -304.88218      103528.41      0.97522384    -32346.396     -38280.638      46.955505    
    110300   110300         296.94418     -503.90728      103528.41      0.97522384    -32375.001     -38348.772      46.955505    
    110400   110400         303.40889     -407.68472      103528.41      0.97522384    -32285.846     -38389.67       46.955505    
    110500   110500         300.67267     -476.91753      103528.41      0.97522384    -32201.843     -38250.621      46.955505    
    110600   110600         300.33347     -398.87588      103528.41      0.97522384    -32153.975     -38195.93       46.955505    
    110700   110700         293.38643     -333.88164      103528.41      0.97522384    -32279.213     -38181.411      46.955505    
    110800   110800         294.72479     -223.34586      103528.41      0.97522384    -32360.051     -38289.173      46.955505    
    110900   110900         298.55887     -331.81808      103528.41      0.97522384    -32353.869     -38360.123      46.955505    
    111000   111000         299.86771     -111.98561      103528.41      0.97522384    -32335.911     -38368.496      46.955505    
    111100   111100         301.42208     -343.66817      103528.41      0.97522384    -32355.472     -38419.327      46.955505    
    111200   111200         296.10693     -77.671103      103528.41      0.97522384    -32515.752     -38472.68       46.955505    
    111300   111300         295.56137     -30.519684      103528.41      0.97522384    -32509.69      -38455.642      46.955505    
    111400   111400         295.8869      -17.922307      103528.41      0.97522384    -32407.396     -38359.897      46.955505    
    111500   111500         298.11251     -221.98871      103528.41      0.97522384    -32350.79      -38348.064      46.955505    
    111600   111600         301.74998     -355.14078      103528.41      0.97522384    -32356.352     -38426.803      46.955505    
    111700   111700         296.36268      136.31977      103528.41      0.97522384    -32389.933     -38352.005      46.955505    
    111800   111800         293.02039     -118.58416      103528.41      0.97522384    -32406.16      -38300.994      46.955505    
    111900   111900         300.85343     -95.514854      103528.41      0.97522384    -32306.34      -38358.755      46.955505    
    112000   112000         300.65099     -38.879023      103528.41      0.97522384    -32159.893     -38208.235      46.955505    
    112100   112100         303.99319     -186.71848      103528.41      0.97522384    -32219.131     -38334.71       46.955505    
    112200   112200         295.51624     -83.58435       103528.41      0.97522384    -32312.458     -38257.503      46.955505    
    112300   112300         298.81903     -148.1408       103528.41      0.97522384    -32358.872     -38370.36       46.955505    
    112400   112400         294.5824      -54.575625      103528.41      0.97522384    -32429.154     -38355.412      46.955505    
    112500   112500         291.03721     -181.70203      103528.41      0.97522384    -32515.418     -38370.356      46.955505    
    112600   112600         295.71677     -127.26977      103528.41      0.97522384    -32408.723     -38357.801      46.955505    
    112700   112700         300.23203      20.38893       103528.41      0.97522384    -32297.067     -38336.981      46.955505    
    112800   112800         293.05401     -250.37447      103528.41      0.97522384    -32352.037     -38247.547      46.955505    
    112900   112900         296.5698       123.31917      103528.41      0.97522384    -32439.397     -38405.636      46.955505    
    113000   113000         293.6695      -130.56528      103528.41      0.97522384    -32506.971     -38414.863      46.955505    
    113100   113100         293.46769     -372.09903      103528.41      0.97522384    -32410.61      -38314.442      46.955505    
    113200   113200         300.99837     -422.17214      103528.41      0.97522384    -32298.604     -38353.935      46.955505    
    113300   113300         301.08096     -187.30559      103528.41      0.97522384    -32331.826     -38388.819      46.955505    
    113400   113400         296.46387      138.56347      103528.41      0.97522384    -32442.965     -38407.073      46.955505    
    113500   113500         294.51743     -1.63085        103528.41      0.97522384    -32520.219     -38445.17       46.955505    
    113600   113600         294.86394     -244.18067      103528.41      0.97522384    -32554.852     -38486.774      46.955505    
    113700   113700         298.00666     -116.13707      103528.41      0.97522384    -32428.389     -38423.534      46.955505    
    113800   113800         298.74275      53.187973      103528.41      0.97522384    -32335.143     -38345.096      46.955505    
    113900   113900         300.70896     -439.20559      103528.41      0.97522384    -32370.177     -38419.686      46.955505    
    114000   114000         297.28617     -205.00298      103528.41      0.97522384    -32471.727     -38452.377      46.955505    
    114100   114100         297.974       -112.03606      103528.41      0.97522384    -32514.347     -38508.835      46.955505    
    114200   114200         296.65127     -200.34931      103528.41      0.97522384    -32489.925     -38457.803      46.955505    
    114300   114300         301.59881     -72.964476      103528.41      0.97522384    -32454.075     -38521.485      46.955505    
    114400   114400         297.3271       23.122083      103528.41      0.97522384    -32481.283     -38462.757      46.955505    
    114500   114500         298.2807      -429.62494      103528.41      0.97522384    -32476.214     -38476.872      46.955505    
    114600   114600         298.08615     -72.330208      103528.41      0.97522384    -32434.539     -38431.284      46.955505    
    114700   114700         299.51206     -98.159822      103528.41      0.97522384    -32379.168     -38404.598      46.955505    
    114800   114800         297.02332     -155.42139      103528.41      0.97522384    -32280.465     -38255.828      46.955505    
    114900   114900         301.15633     -51.290114      103528.41      0.97522384    -32191.182     -38249.69       46.955505    
    115000   115000         301.05413     -132.1161       103528.41      0.97522384    -32297.153     -38353.605      46.955505    
    115100   115100         301.87262     -220.24631      103528.41      0.97522384    -32397.035     -38469.954      46.955505    
    115200   115200         299.14122     -150.95005      103528.41      0.97522384    -32419.538     -38437.507      46.955505    
    115300   115300         298.93497     -81.675702      103528.41      0.97522384    -32365.07      -38378.89       46.955505    
    115400   115400         303.65437      5.9260625      103528.41      0.97522384    -32280.62      -38389.383      46.955505    
    115500   115500         298.14737     -107.66521      103528.41      0.97522384    -32348.633     -38346.609      46.955505    
    115600   115600         295.10649     -205.87505      103528.41      0.97522384    -32495.977     -38432.778      46.955505    
    115700   115700         298.37847     -245.43943      103528.41      0.97522384    -32483.894     -38486.519      46.955505    
    115800   115800         298.29461     -263.68684      103528.41      0.97522384    -32415.515     -38416.453      46.955505    
    115900   115900         299.51235     -120.09852      103528.41      0.97522384    -32329.947     -38355.383      46.955505    
    116000   116000         297.07499     -328.06367      103528.41      0.97522384    -32322.833     -38299.235      46.955505    
    116100   116100         298.85088     -148.19424      103528.41      0.97522384    -32332.7       -38344.828      46.955505    
    116200   116200         296.09282     -340.30317      103528.41      0.97522384    -32351.935     -38308.579      46.955505    
    116300   116300         295.5882      -318.23711      103528.41      0.97522384    -32364.751     -38311.243      46.955505    
    116400   116400         298.52482     -185.91443      103528.41      0.97522384    -32330.356     -38335.926      46.955505    
    116500   116500         305.39656     -193.23714      103528.41      0.97522384    -32207.341     -38351.153      46.955505    
    116600   116600         301.1309      -298.44819      103528.41      0.97522384    -32189.91      -38247.907      46.955505    
    116700   116700         301.52186      324.24656      103528.41      0.97522384    -32352.958     -38418.82       46.955505    
    116800   116800         295.79761      141.8754       103528.41      0.97522384    -32427.33      -38378.034      46.955505    
    116900   116900         298.8367       92.659883      103528.41      0.97522384    -32399.901     -38411.744      46.955505    
    117000   117000         300.2751       22.717743      103528.41      0.97522384    -32350.084     -38390.865      46.955505    
    117100   117100         296.78554     -216.51498      103528.41      0.97522384    -32314.032     -38284.611      46.955505    
    117200   117200         301.3595      -338.23758      103528.41      0.97522384    -32241.372     -38303.968      46.955505    
    117300   117300         298.41109      441.81466      103528.41      0.97522384    -32228.52      -38231.801      46.955505    
    117400   117400         294.58934     -78.543017      103528.41      0.97522384    -32358.99      -38285.387      46.955505    
    117500   117500         292.53674     -149.73553      103528.41      0.97522384    -32410.683     -38295.787      46.955505    
    117600   117600         290.93145      182.55445      103528.41      0.97522384    -32338.431     -38191.241      46.955505    
    117700   117700         294.77689      2.7585486      103528.41      0.97522384    -32225.208     -38155.378      46.955505    
    117800   117800         298.73391      165.88773      103528.41      0.97522384    -32190.63      -38200.406      46.955505    
    117900   117900         300.09953     -63.627131      103528.41      0.97522384    -32223.686     -38260.935      46.955505    
    118000   118000         296.61829     -342.31345      103528.41      0.97522384    -32332.931     -38300.145      46.955505    
    118100   118100         298.96387      117.20855      103528.41      0.97522384    -32374.563     -38388.965      46.955505    
    118200   118200         301.82757     -221.43451      103528.41      0.97522384    -32340.152     -38412.165      46.955505    
    118300   118300         299.85603     -24.26661       103528.41      0.97522384    -32171.473     -38203.823      46.955505    
    118400   118400         300.93947     -283.07976      103528.41      0.97522384    -32097.488     -38151.634      46.955505    
    118500   118500         299.21181     -15.986334      103528.41      0.97522384    -32115.395     -38134.785      46.955505    
    118600   118600         298.85784      104.55817      103528.41      0.97522384    -32208.072     -38220.341      46.955505    
    118700   118700         297.62014     -93.531762      103528.41      0.97522384    -32346.701     -38334.071      46.955505    
    118800   118800         293.99723     -200.43809      103528.41      0.97522384    -32383.805     -38298.29       46.955505    
    118900   118900         299.71968     -293.88427      103528.41      0.97522384    -32306.603     -38336.21       46.955505    
    119000   119000         296.65801     -195.52272      103528.41      0.97522384    -32216.434     -38184.447      46.955505    
    119100   119100         301.03939     -100.40048      103528.41      0.97522384    -32198.45      -38254.606      46.955505    
    119200   119200         296.59946     -180.6478       103528.41      0.97522384    -32244.897     -38211.732      46.955505    
    119300   119300         296.32924     -179.34359      103528.41      0.97522384    -32303.005     -38264.405      46.955505    
    119400   119400         296.77152      191.12915      103528.41      0.97522384    -32299.433     -38269.73       46.955505    
    119500   119500         300.26264      150.64782      103528.41      0.97522384    -32294.809     -38335.338      46.955505    
    119600   119600         294.40606     -219.08221      103528.41      0.97522384    -32315.382     -38238.092      46.955505    
    119700   119700         301.15937     -424.02913      103528.41      0.97522384    -32279.323     -38337.893      46.955505    
    119800   119800         303.81025     -18.964354      103528.41      0.97522384    -32130.21      -38242.109      46.955505    
    119900   119900         302.21304     -277.16635      103528.41      0.97522384    -32083.629     -38163.396      46.955505    
    120000   120000         304.40529     -136.92784      103528.41      0.97522384    -32131.283     -38255.153      46.955505    
    120100   120100         297.30795     -84.441496      103528.41      0.97522384    -32209.861     -38190.95       46.955505    
    120200   120200         298.5565      -196.55946      103528.41      0.97522384    -32263.35      -38269.556      46.955505    
    120300   120300         297.97817     -163.85026      103528.41      0.97522384    -32336.982     -38331.554      46.955505    
    120400   120400         294.36502     -139.62995      103528.41      0.97522384    -32331.382     -38253.266      46.955505    
    120500   120500         306.09072      114.87607      103528.41      0.97522384    -32165.911     -38323.688      46.955505    
    120600   120600         298.03947     -461.85737      103528.41      0.97522384    -32155.844     -38151.649      46.955505    
    120700   120700         297.97262      21.592176      103528.41      0.97522384    -32131.877     -38126.337      46.955505    
    120800   120800         298.41833     -185.46036      103528.41      0.97522384    -32180.4       -38183.827      46.955505    
    120900   120900         298.002       -7.0028997      103528.41      0.97522384    -32342.009     -38337.061      46.955505    
    121000   121000         298.83104     -343.179        103528.41      0.97522384    -32370.469     -38382.199      46.955505    
    121100   121100         291.70043     -274.99297      103528.41      0.97522384    -32365.645     -38233.925      46.955505    
    121200   121200         298.39961     -268.72709      103528.41      0.97522384    -32249.003     -38252.054      46.955505    
    121300   121300         302.5726      -494.72493      103528.41      0.97522384    -32205.407     -38292.408      46.955505    
    121400   121400         299.46858     -80.54239       103528.41      0.97522384    -32265.722     -38290.277      46.955505    
    121500   121500         299.46974     -252.9748       103528.41      0.97522384    -32311.185     -38335.764      46.955505    
    121600   121600         299.56203     -17.845802      103528.41      0.97522384    -32310.244     -38336.68       46.955505    
    121700   121700         293.63227     -393.56224      103528.41      0.97522384    -32391.908     -38299.051      46.955505    
    121800   121800         294.8911      -188.91492      103528.41      0.97522384    -32448.001     -38380.469      46.955505    
    121900   121900         300.99082     -217.93603      103528.41      0.97522384    -32422.526     -38477.704      46.955505    
    122000   122000         300.91029     -345.34048      103528.41      0.97522384    -32373.636     -38427.195      46.955505    
    122100   122100         299.54729     -227.50757      103528.41      0.97522384    -32290.428     -38316.567      46.955505    
    122200   122200         300.49553     -395.58509      103528.41      0.97522384    -32258.531     -38303.746      46.955505    
    122300   122300         300.64564     -524.7633       103528.41      0.97522384    -32286.603     -38334.838      46.955505    
    122400   122400         293.53014     -114.12204      103528.41      0.97522384    -32382.874     -38287.962      46.955505    
    122500   122500         295.11969     -299.06142      103528.41      0.97522384    -32442.165     -38379.231      46.955505    
    122600   122600         295.11761     -135.07348      103528.41      0.97522384    -32362.643     -38299.668      46.955505    
    122700   122700         298.45875     -255.11285      103528.41      0.97522384    -32217.895     -38222.135      46.955505    
    122800   122800         300.05363      0.34173668     103528.41      0.97522384    -32178.983     -38215.308      46.955505    
    122900   122900         298.7864      -201.43191      103528.41      0.97522384    -32195.405     -38206.237      46.955505    
    123000   123000         298.39125     -243.40001      103528.41      0.97522384    -32254.623     -38257.505      46.955505    
    123100   123100         292.94249     -35.601898      103528.41      0.97522384    -32416.732     -38309.999      46.955505    
    123200   123200         290.98128     -110.82306      103528.41      0.97522384    -32429.503     -38283.315      46.955505    
    123300   123300         301.69346     -333.23692      103528.41      0.97522384    -32369.888     -38439.203      46.955505    
    123400   123400         300.72048     -328.782        103528.41      0.97522384    -32237.051     -38286.791      46.955505    
    123500   123500         297.04279     -330.72048      103528.41      0.97522384    -32178.841     -38154.596      46.955505    
    123600   123600         300.17522     -154.57352      103528.41      0.97522384    -32191.334     -38230.105      46.955505    
    123700   123700         297.51184      114.76332      103528.41      0.97522384    -32277.824     -38263.015      46.955505    
    123800   123800         292.29626      51.192944      103528.41      0.97522384    -32357.202     -38237.468      46.955505    
    123900   123900         299.65509     -114.34209      103528.41      0.97522384    -32368.071     -38396.378      46.955505    
    124000   124000         297.43231     -208.99462      103528.41      0.97522384    -32388.027     -38371.617      46.955505    
    124100   124100         298.33744     -101.80826      103528.41      0.97522384    -32340.543     -38342.343      46.955505    
    124200   124200         302.1399      -378.56279      103528.41      0.97522384    -32231.99      -38310.285      46.955505    
    124300   124300         299.54232     -125.65268      103528.41      0.97522384    -32256.935     -38282.974      46.955505    
    124400   124400         297.49824     -617.91272      103528.41      0.97522384    -32362.991     -38347.907      46.955505    
    124500   124500         296.45214     -668.56505      103528.41      0.97522384    -32387.214     -38351.086      46.955505    
    124600   124600         294.85577     -251.16537      103528.41      0.97522384    -32263.683     -38195.44       46.955505    
    124700   124700         305.42016     -316.04578      103528.41      0.97522384    -32157.806     -38302.092      46.955505    
    124800   124800         300.48766     -304.71125      103528.41      0.97522384    -32239.563     -38284.62       46.955505    
    124900   124900         298.24705     -268.20611      103528.41      0.97522384    -32312.85      -38312.831      46.955505    
    125000   125000         298.19101     -201.01707      103528.41      0.97522384    -32303.66      -38302.513      46.955505    
    125100   125100         297.38491     -89.215593      103528.41      0.97522384    -32212.